                         Program Version 5.0.3 -  RELEASE  -
|  1> %maxcore 4200
|  2> %Pal nprocs 6 end
|  3> ! TPSSh def2-TZVP
|  4> ! DEFGRID3 TRAH
|  5>
|  6> %scf
|  7>     MaxIter 300
|  8> end
|  9>
| 10> *xyz +2 1
| 11> Ru 5.24470500 5.94610200 8.27982100
| 12> O 7.05788000 5.86374800 9.03681800
| 13> N 5.43453900 8.06538600 8.34214700
| 14> H 6.43198900 8.21498900 8.17727100
| 15> H 5.23125300 8.51395800 9.23187200
| 16> H 4.94491000 8.62208600 7.64585800
| 17> N 5.44250900 3.82707700 8.24181500
| 18> H 4.87926900 3.27673400 8.88542200
| 19> H 6.41591700 3.67891100 8.51550700
| 20> H 5.33623100 3.37198000 7.33843400
| 21> N 3.09706000 5.93413000 8.13546800
| 22> H 2.63333800 5.93915800 9.04129300
| 23> H 2.72014000 5.11698900 7.65903500
| 24> H 2.71728700 6.74251800 7.64638600
| 25> N 4.92860300 5.93592600 10.39953200
| 26> H 4.74883200 5.01853500 10.80223500
| 27> H 4.19928200 6.54945100 10.75583700
| 28> H 5.79770700 6.25343100 10.82773800
| 29> N 5.16146400 5.95849600 6.14242600
| 30> H 5.98762000 5.46451300 5.80715200
| 31> H 5.22771000 6.88845000 5.73380300
| 32> H 4.35936100 5.51280500 5.70396400
| 33> O 7.12456400 6.03286500 7.71275100
| 34> **                         ****END OF INPUT****

CARTESIAN COORDINATES (ANGSTROEM)
---------------------------------
  Ru     5.244705    5.946102    8.279821
  O      7.057880    5.863748    9.036818
  N      5.434539    8.065386    8.342147
  H      6.431989    8.214989    8.177271
  H      5.231253    8.513958    9.231872
  H      4.944910    8.622086    7.645858
  N      5.442509    3.827077    8.241815
  H      4.879269    3.276734    8.885422
  H      6.415917    3.678911    8.515507
  H      5.336231    3.371980    7.338434
  N      3.097060    5.934130    8.135468
  H      2.633338    5.939158    9.041293
  H      2.720140    5.116989    7.659035
  H      2.717287    6.742518    7.646386
  N      4.928603    5.935926   10.399532
  H      4.748832    5.018535   10.802235
  H      4.199282    6.549451   10.755837
  H      5.797707    6.253431   10.827738
  N      5.161464    5.958496    6.142426
  H      5.987620    5.464513    5.807152
  H      5.227710    6.888450    5.733803
  H      4.359361    5.512805    5.703964
  O      7.124564    6.032865    7.712751

 Total Charge           Charge          ....    2
 Multiplicity           Mult            ....    1
 Number of Electrons    NEL             ....   80
 Basis Dimension        Dim             ....  347

ORBITAL ENERGIES
----------------

  NO   OCC          E(Eh)            E(eV)
   0   2.0000     -19.398346      -527.8558
   1   2.0000     -19.397376      -527.8294
   2   2.0000     -14.620316      -397.8390
   3   2.0000     -14.610392      -397.5690
   4   2.0000     -14.609871      -397.5548
   5   2.0000     -14.590939      -397.0396
   6   2.0000     -14.590826      -397.0366
   7   2.0000      -3.316355       -90.2426
   8   2.0000      -2.182240       -59.3818
   9   2.0000      -2.175900       -59.2093
  10   2.0000      -2.149527       -58.4916
  11   2.0000      -1.402665       -38.1684
  12   2.0000      -1.218339       -33.1527
  13   2.0000      -1.205194       -32.7950
  14   2.0000      -1.203141       -32.7391
  15   2.0000      -1.186869       -32.2964
  16   2.0000      -1.184372       -32.2284
  17   2.0000      -1.054852       -28.7040
  18   2.0000      -0.828920       -22.5561
  19   2.0000      -0.822371       -22.3779
  20   2.0000      -0.820173       -22.3180
  21   2.0000      -0.815691       -22.1961
  22   2.0000      -0.805018       -21.9056
  23   2.0000      -0.797654       -21.7053
  24   2.0000      -0.794255       -21.6128
  25   2.0000      -0.788440       -21.4545
  26   2.0000      -0.786899       -21.4126
  27   2.0000      -0.780193       -21.2301
  28   2.0000      -0.753560       -20.5054
  29   2.0000      -0.734614       -19.9899
  30   2.0000      -0.703941       -19.1552
  31   2.0000      -0.696623       -18.9561
  32   2.0000      -0.694500       -18.8983
  33   2.0000      -0.677041       -18.4232
  34   2.0000      -0.661015       -17.9871
  35   2.0000      -0.633399       -17.2357
  36   2.0000      -0.599089       -16.3020
  37   2.0000      -0.547699       -14.9037
  38   2.0000      -0.520508       -14.1637
  39   2.0000      -0.479027       -13.0350
  40   0.0000      -0.381619       -10.3844
  41   0.0000      -0.361049        -9.8247
  42   0.0000      -0.327003        -8.8982
  43   0.0000      -0.309172        -8.4130
  44   0.0000      -0.271385        -7.3848

MULLIKEN ATOMIC CHARGES
-----------------------
   0 Ru:    0.453345
   1 O :   -0.206155
   2 N :   -0.519483
   3 H :    0.332109
   4 H :    0.292165
   5 H :    0.288282
   6 N :   -0.521549
   7 H :    0.290332
   8 H :    0.332298
   9 H :    0.291694
  10 N :   -0.557234
  11 H :    0.299624
  12 H :    0.309719
  13 H :    0.312432
  14 N :   -0.544438
  15 H :    0.305164
  16 H :    0.297375
  17 H :    0.339076
  18 N :   -0.534058
  19 H :    0.335137
  20 H :    0.306491
  21 H :    0.296041
  22 O :   -0.198366
Sum of atomic charges:    2.0000000

LOEWDIN ATOMIC CHARGES
----------------------
   0 Ru:    0.041579
   1 O :   -0.125687
   2 N :   -0.114475
   3 H :    0.193429
   4 H :    0.178196
   5 H :    0.174829
   6 N :   -0.114429
   7 H :    0.175528
   8 H :    0.193641
   9 H :    0.177802
  10 N :   -0.118928
  11 H :    0.183410
  12 H :    0.182722
  13 H :    0.184492
  14 N :   -0.102553
  15 H :    0.183344
  16 H :    0.177069
  17 H :    0.194839
  18 N :   -0.098547
  19 H :    0.192508
  20 H :    0.185111
  21 H :    0.177316
  22 O :   -0.121195

  Mayer bond orders larger than 0.100000
B(  0-Ru,  1-O ) :   0.7943 B(  0-Ru,  2-N ) :   0.5652 B(  0-Ru,  6-N ) :   0.5644
B(  0-Ru, 10-N ) :   0.5349 B(  0-Ru, 14-N ) :   0.5726 B(  0-Ru, 18-N ) :   0.5738
B(  0-Ru, 22-O ) :   0.8041 B(  1-O , 22-O ) :   0.9570 B(  2-N ,  3-H ) :   0.8703
B(  2-N ,  4-H ) :   0.9019 B(  2-N ,  5-H ) :   0.9025 B(  6-N ,  7-H ) :   0.9017
B(  6-N ,  8-H ) :   0.8706 B(  6-N ,  9-H ) :   0.9022 B( 10-N , 11-H ) :   0.8997
B( 10-N , 12-H ) :   0.8932 B( 10-N , 13-H ) :   0.8920 B( 14-N , 15-H ) :   0.8939
B( 14-N , 16-H ) :   0.8975 B( 14-N , 17-H ) :   0.8747 B( 18-N , 19-H ) :   0.8754
B( 18-N , 20-H ) :   0.8941 B( 18-N , 21-H ) :   0.8983

FINAL SINGLE POINT ENERGY      -527.790676459792

DIPOLE MOMENT
-------------
                                X             Y             Z
Electronic contribution:     -1.79205       0.03954       0.05669
Nuclear contribution   :     -1.47593      -0.04632      -0.23792
                        -----------------------------------------
Total Dipole Moment    :     -3.26798      -0.00678      -0.18123
                        -----------------------------------------
Magnitude (a.u.)       :      3.27301
Magnitude (Debye)      :      8.31933

Rotational constants in cm-1:     0.047878     0.045796     0.043883
Rotational constants in MHz :  1435.338042  1372.935717  1315.589771

                             ****ORCA TERMINATED NORMALLY****
TOTAL RUN TIME: 0 days 0 hours 1 minutes 39 seconds 382 msec
