                         Program Version 5.0.3 -  RELEASE  -
|  1> %maxcore 4200
|  2> %Pal nprocs 6 end
|  3> ! TPSSh def2-TZVP
|  4> ! DEFGRID3 TRAH
|  5>
|  6> %scf
|  7>     MaxIter 300
|  8> end
|  9>
| 10> *xyz +2 3
| 11> Ru 5.14304700 5.90101500 8.24066600
| 12> O 7.11904300 5.96780200 8.21599900
| 13> N 5.20634600 8.04549200 8.18707700
| 14> H 6.17308600 8.36556500 8.11954300
| 15> H 4.83188900 8.51765500 9.00703000
| 16> H 4.73381400 8.48045800 7.39753300
| 17> N 5.20217200 3.74919500 8.28090800
| 18> H 4.83179700 3.31577400 9.12372900
| 19> H 6.16730600 3.42798700 8.22260800
| 20> H 4.72036300 3.27859200 7.51810100
| 21> N 3.00393000 5.90415600 8.22509900
| 22> H 2.59110200 5.63640500 9.11620100
| 23> H 2.59985900 5.26168700 7.54667400
| 24> H 2.59021600 6.80836000 8.00794200
| 25> N 5.19042400 5.94104400 10.39278400
| 26> H 4.81125200 5.12056500 10.86042600
| 27> H 4.71727300 6.72889200 10.83000300
| 28> H 6.15527100 6.00162500 10.71432600
| 29> N 5.21121700 5.88149600 6.09197900
| 30> H 5.10221300 4.96415700 5.66496900
| 31> H 6.11824400 6.20971000 5.76182100
| 32> H 4.52841300 6.47054300 5.62057100
| 33> O 8.01455100 6.67751300 7.77979500
| 34> **                         ****END OF INPUT****

CARTESIAN COORDINATES (ANGSTROEM)
---------------------------------
  Ru     5.143047    5.901015    8.240666
  O      7.119043    5.967802    8.215999
  N      5.206346    8.045492    8.187077
  H      6.173086    8.365565    8.119543
  H      4.831889    8.517655    9.007030
  H      4.733814    8.480458    7.397533
  N      5.202172    3.749195    8.280908
  H      4.831797    3.315774    9.123729
  H      6.167306    3.427987    8.222608
  H      4.720363    3.278592    7.518101
  N      3.003930    5.904156    8.225099
  H      2.591102    5.636405    9.116201
  H      2.599859    5.261687    7.546674
  H      2.590216    6.808360    8.007942
  N      5.190424    5.941044   10.392784
  H      4.811252    5.120565   10.860426
  H      4.717273    6.728892   10.830003
  H      6.155271    6.001625   10.714326
  N      5.211217    5.881496    6.091979
  H      5.102213    4.964157    5.664969
  H      6.118244    6.209710    5.761821
  H      4.528413    6.470543    5.620571
  O      8.014551    6.677513    7.779795

 Total Charge           Charge          ....    2
 Multiplicity           Mult            ....    3
 Number of Electrons    NEL             ....   80
 Basis Dimension        Dim             ....  347

ORBITAL ENERGIES
----------------
                 SPIN UP ORBITALS
  NO   OCC          E(Eh)            E(eV)
   0   1.0000     -19.471792      -529.8544
   1   1.0000     -19.442770      -529.0647
   2   1.0000     -14.599074      -397.2610
   3   1.0000     -14.588393      -396.9703
   4   1.0000     -14.588021      -396.9602
   5   1.0000     -14.587224      -396.9385
   6   1.0000     -14.587150      -396.9365
   7   1.0000      -3.272237       -89.0421
   8   1.0000      -2.136856       -58.1468
   9   1.0000      -2.121945       -57.7411
  10   1.0000      -2.121430       -57.7270
  11   1.0000      -1.514697       -41.2170
  12   1.0000      -1.197198       -32.5774
  13   1.0000      -1.187861       -32.3233
  14   1.0000      -1.182283       -32.1716
  15   1.0000      -1.181988       -32.1635
  16   1.0000      -1.180941       -32.1350
  17   1.0000      -1.090727       -29.6802
  18   1.0000      -0.816542       -22.2192
  19   1.0000      -0.808247       -21.9935
  20   1.0000      -0.805499       -21.9187
  21   1.0000      -0.804161       -21.8823
  22   1.0000      -0.793967       -21.6049
  23   1.0000      -0.791337       -21.5334
  24   1.0000      -0.784249       -21.3405
  25   1.0000      -0.783514       -21.3205
  26   1.0000      -0.782675       -21.2977
  27   1.0000      -0.779025       -21.1983
  28   1.0000      -0.770319       -20.9614
  29   1.0000      -0.768419       -20.9098
  30   1.0000      -0.767221       -20.8771
  31   1.0000      -0.703110       -19.1326
  32   1.0000      -0.688261       -18.7285
  33   1.0000      -0.674465       -18.3531
  34   1.0000      -0.635449       -17.2915
  35   1.0000      -0.635144       -17.2831
  36   1.0000      -0.558983       -15.2107
  37   1.0000      -0.556762       -15.1503
  38   1.0000      -0.503663       -13.7054
  39   1.0000      -0.503442       -13.6994
  40   1.0000      -0.488712       -13.2985
  41   0.0000      -0.319597        -8.6967
  42   0.0000      -0.314754        -8.5649
  43   0.0000      -0.301763        -8.2114
  44   0.0000      -0.263556        -7.1717
  45   0.0000      -0.262427        -7.1410

                 SPIN DOWN ORBITALS
  NO   OCC          E(Eh)            E(eV)
   0   1.0000     -19.447859      -529.2032
   1   1.0000     -19.415261      -528.3161
   2   1.0000     -14.598911      -397.2566
   3   1.0000     -14.588449      -396.9719
   4   1.0000     -14.588075      -396.9617
   5   1.0000     -14.587288      -396.9403
   6   1.0000     -14.587200      -396.9379
   7   1.0000      -3.259183       -88.6869
   8   1.0000      -2.116553       -57.5943
   9   1.0000      -2.110498       -57.4296
  10   1.0000      -2.109268       -57.3961
  11   1.0000      -1.472387       -40.0657
  12   1.0000      -1.196697       -32.5638
  13   1.0000      -1.187760       -32.3206
  14   1.0000      -1.182311       -32.1723
  15   1.0000      -1.182045       -32.1651
  16   1.0000      -1.180967       -32.1357
  17   1.0000      -1.028884       -27.9974
  18   1.0000      -0.804471       -21.8908
  19   1.0000      -0.804042       -21.8791
  20   1.0000      -0.803005       -21.8509
  21   1.0000      -0.792891       -21.5757
  22   1.0000      -0.785493       -21.3743
  23   1.0000      -0.784887       -21.3579
  24   1.0000      -0.781500       -21.2657
  25   1.0000      -0.781043       -21.2533
  26   1.0000      -0.778690       -21.1892
  27   1.0000      -0.771420       -20.9914
  28   1.0000      -0.768865       -20.9219
  29   1.0000      -0.717364       -19.5205
  30   1.0000      -0.710796       -19.3417
  31   1.0000      -0.701621       -19.0921
  32   1.0000      -0.686130       -18.6706
  33   1.0000      -0.669424       -18.2159
  34   1.0000      -0.634731       -17.2719
  35   1.0000      -0.634023       -17.2527
  36   1.0000      -0.502376       -13.6704
  37   1.0000      -0.501061       -13.6346
  38   1.0000      -0.497018       -13.5245
  39   0.0000      -0.415674       -11.3111
  40   0.0000      -0.392551       -10.6818
  41   0.0000      -0.307777        -8.3750
  42   0.0000      -0.306516        -8.3407
  43   0.0000      -0.301196        -8.1960

MULLIKEN ATOMIC CHARGES AND SPIN POPULATIONS
--------------------------------------------
   0 Ru:    0.434047    0.423249
   1 O :   -0.053955    0.684651
   2 N :   -0.566298   -0.003746
   3 H :    0.312189   -0.002604
   4 H :    0.293650    0.000515
   5 H :    0.292829    0.000058
   6 N :   -0.567528   -0.005099
   7 H :    0.290128   -0.000619
   8 H :    0.318973    0.004382
   9 H :    0.290715   -0.000599
  10 N :   -0.565165    0.002705
  11 H :    0.301487    0.003711
  12 H :    0.303208    0.002662
  13 H :    0.300081   -0.001069
  14 N :   -0.569204   -0.004397
  15 H :    0.289506   -0.000640
  16 H :    0.292593   -0.000534
  17 H :    0.317964    0.004057
  18 N :   -0.566107   -0.003441
  19 H :    0.291842    0.000032
  20 H :    0.312610   -0.001379
  21 H :    0.294378   -0.000300
  22 O :   -0.047944    0.898404
Sum of atomic charges         :    2.0000000

LOEWDIN ATOMIC CHARGES AND SPIN POPULATIONS
-------------------------------------------
   0 Ru:   -0.086223    0.401462
   1 O :    0.013551    0.716119
   2 N :   -0.126382   -0.001797
   3 H :    0.182537   -0.001168
   4 H :    0.176542    0.000192
   5 H :    0.176142    0.000009
   6 N :   -0.129710   -0.000125
   7 H :    0.175619   -0.000394
   8 H :    0.186943    0.002899
   9 H :    0.174892   -0.000360
  10 N :   -0.123037    0.012177
  11 H :    0.181022    0.002828
  12 H :    0.180726    0.002126
  13 H :    0.180033   -0.000411
  14 N :   -0.130075    0.000009
  15 H :    0.174656   -0.000423
  16 H :    0.175547   -0.000370
  17 H :    0.186793    0.002512
  18 N :   -0.126746   -0.001391
  19 H :    0.177033   -0.000082
  20 H :    0.184032   -0.000808
  21 H :    0.175810   -0.000195
  22 O :    0.020295    0.867193

  Mayer bond orders larger than 0.100000
B(  0-Ru,  1-O ) :   0.6312 B(  0-Ru,  2-N ) :   0.5191 B(  0-Ru,  6-N ) :   0.5144
B(  0-Ru, 10-N ) :   0.5253 B(  0-Ru, 14-N ) :   0.5127 B(  0-Ru, 18-N ) :   0.5120
B(  0-Ru, 22-O ) :   0.3577 B(  1-O , 22-O ) :   1.4517 B(  2-N ,  3-H ) :   0.8871
B(  2-N ,  4-H ) :   0.9018 B(  2-N ,  5-H ) :   0.9022 B(  6-N ,  7-H ) :   0.9035
B(  6-N ,  8-H ) :   0.8892 B(  6-N ,  9-H ) :   0.9031 B( 10-N , 11-H ) :   0.8980
B( 10-N , 12-H ) :   0.8975 B( 10-N , 13-H ) :   0.8993 B( 14-N , 15-H ) :   0.9033
B( 14-N , 16-H ) :   0.9022 B( 14-N , 17-H ) :   0.8897 B( 18-N , 19-H ) :   0.9032
B( 18-N , 20-H ) :   0.8902 B( 18-N , 21-H ) :   0.9016

FINAL SINGLE POINT ENERGY      -527.787792738157

DIPOLE MOMENT
-------------
                                X             Y             Z
Electronic contribution:     -6.96865      -3.56855       2.16063
Nuclear contribution   :      4.37352       3.30724      -2.02350
                        -----------------------------------------
Total Dipole Moment    :     -2.59513      -0.26131       0.13713
                        -----------------------------------------
Magnitude (a.u.)       :      2.61185
Magnitude (Debye)      :      6.63881

Rotational constants in cm-1:     0.049268     0.036622     0.036433
Rotational constants in MHz :  1477.023107  1097.891295  1092.236727

                             ****ORCA TERMINATED NORMALLY****
TOTAL RUN TIME: 0 days 0 hours 2 minutes 14 seconds 513 msec
